
                        S T E P       1


                                INCREMENT     1


 displacements (vx,vy,vz) for set NALL and time  0.1000000E+01

         1  5.313608E-01  3.334030E-01  1.782727E-01
         2  4.378994E-02  1.273921E-02  1.651514E-02
         3  1.015014E+00  4.665714E-01 -5.069641E-01
         4  2.984841E-01  2.467092E-01 -2.508176E-01
         5  1.359954E+00  1.054467E+00  2.329377E-01
         6  1.710773E+00  1.021934E+00 -6.648859E-01
         7  1.197973E+00  9.143916E-01  2.538335E-01
         8  1.476587E+00  8.458905E-01 -6.037447E-01
         9  0.000000E+00  0.000000E+00  0.000000E+00
        10  0.000000E+00  0.000000E+00  0.000000E+00
        11  0.000000E+00  0.000000E+00  0.000000E+00
        12  0.000000E+00  0.000000E+00  0.000000E+00
        13  0.000000E+00  0.000000E+00  0.000000E+00
        14  2.580704E-03  8.611731E-04  4.855970E-03
        15  4.286234E-03  3.085169E-03 -9.126857E-05
        16  9.955396E-04  1.544577E-03 -3.425921E-03
        17  2.727566E-03  2.002139E-03 -1.815594E-03
        18  5.176027E-01  3.220127E-01  1.749304E-01
        19  5.051997E-01  3.124905E-01  1.711357E-01
        20  4.906374E-01  2.995669E-01  1.684077E-01
        21  4.832078E-01  2.948663E-01  1.649065E-01
        22  4.739265E-01  2.893025E-01  1.604388E-01
        23  4.638479E-01  2.829834E-01  1.556815E-01
        24  4.536191E-01  2.766340E-01  1.508176E-01
        25  4.415964E-01  2.631550E-01  1.512089E-01
        26  4.290291E-01  2.502153E-01  1.506105E-01
        27  4.148072E-01  2.377319E-01  1.479371E-01
        28  4.007953E-01  2.254736E-01  1.452035E-01
        29  3.872084E-01  2.140750E-01  1.418395E-01
        30  3.735270E-01  2.027723E-01  1.384938E-01
        31  3.602993E-01  1.915594E-01  1.356309E-01
        32  3.557275E-01  1.900453E-01  1.305688E-01
        33  3.452687E-01  1.818484E-01  1.272876E-01
        34  3.344820E-01  1.736599E-01  1.231500E-01
        35  3.225973E-01  1.644672E-01  1.188911E-01
        36  3.145408E-01  1.591348E-01  1.139276E-01
        37  3.014973E-01  1.483899E-01  1.103451E-01
        38  2.896614E-01  1.397256E-01  1.056406E-01
        39  2.779732E-01  1.309895E-01  1.015355E-01
        40  2.654247E-01  1.216351E-01  9.754788E-02
        41  2.529843E-01  1.124814E-01  9.410863E-02
        42  2.445407E-01  1.072045E-01  8.923754E-02
        43  2.329230E-01  9.864212E-02  8.755421E-02
        44  2.213478E-01  9.075964E-02  8.568052E-02
        45  2.097569E-01  8.344847E-02  8.341523E-02
        46  1.998280E-01  7.730410E-02  8.239407E-02
        47  1.900449E-01  7.179636E-02  8.063899E-02
        48  1.797488E-01  6.589754E-02  7.675388E-02
        49  1.690955E-01  6.013468E-02  7.446812E-02
        50  1.591006E-01  5.466117E-02  6.990219E-02
        51  1.495775E-01  4.927397E-02  6.449986E-02
        52  1.423331E-01  4.517315E-02  5.907633E-02
        53  1.317412E-01  3.987265E-02  5.398824E-02
        54  1.215398E-01  3.573913E-02  5.115799E-02
        55  1.120948E-01  3.186460E-02  4.667293E-02
        56  1.027287E-01  2.854001E-02  4.144191E-02
        57  9.431792E-02  2.580131E-02  3.631641E-02
        58  8.537559E-02  2.331689E-02  3.284380E-02
        59  7.605189E-02  2.114653E-02  2.984546E-02
        60  6.800751E-02  1.912579E-02  2.638666E-02
        61  6.083198E-02  1.728335E-02  2.356438E-02
        62  5.545446E-02  1.570318E-02  2.049285E-02
        63  4.933799E-02  1.421444E-02  1.834299E-02
        64  1.000371E+00  4.590969E-01 -5.041195E-01
        65  9.968447E-01  4.620924E-01 -5.100112E-01
        66  9.906803E-01  4.623101E-01 -5.135158E-01
        67  9.769695E-01  4.558242E-01 -5.110317E-01
        68  9.630684E-01  4.475075E-01 -5.060682E-01
        69  9.458817E-01  4.354032E-01 -4.970049E-01
        70  9.282301E-01  4.243561E-01 -4.894874E-01
        71  9.108165E-01  4.139547E-01 -4.815820E-01
        72  8.933461E-01  4.040046E-01 -4.739728E-01
        73  8.763716E-01  3.950347E-01 -4.655033E-01
        74  8.605852E-01  3.890147E-01 -4.598389E-01
        75  8.452374E-01  3.847931E-01 -4.540646E-01
        76  8.297505E-01  3.809152E-01 -4.472584E-01
        77  8.138123E-01  3.755007E-01 -4.392880E-01
        78  7.982849E-01  3.702045E-01 -4.310196E-01
        79  7.854413E-01  3.623234E-01 -4.218994E-01
        80  7.735513E-01  3.538027E-01 -4.120695E-01
        81  7.591888E-01  3.483548E-01 -4.039339E-01
        82  7.432192E-01  3.451943E-01 -3.964205E-01
        83  7.271537E-01  3.422290E-01 -3.889217E-01
        84  7.110209E-01  3.398309E-01 -3.816806E-01
        85  6.949133E-01  3.383129E-01 -3.751431E-01
        86  6.787154E-01  3.356246E-01 -3.676612E-01
        87  6.638350E-01  3.355861E-01 -3.626295E-01
        88  6.506841E-01  3.395713E-01 -3.613293E-01
        89  6.374338E-01  3.431929E-01 -3.598717E-01
        90  6.242469E-01  3.465554E-01 -3.585445E-01
        91  6.088997E-01  3.454047E-01 -3.533005E-01
        92  5.923544E-01  3.419616E-01 -3.457656E-01
        93  5.760471E-01  3.390532E-01 -3.391528E-01
        94  5.609953E-01  3.400700E-01 -3.369296E-01
        95  5.456547E-01  3.397591E-01 -3.340351E-01
        96  5.299197E-01  3.341621E-01 -3.259964E-01
        97  5.148185E-01  3.330913E-01 -3.241096E-01
        98  4.983762E-01  3.303184E-01 -3.210317E-01
        99  4.816292E-01  3.254704E-01 -3.163944E-01
       100  4.654971E-01  3.208968E-01 -3.140459E-01
       101  4.486236E-01  3.143834E-01 -3.095021E-01
       102  4.330164E-01  3.081837E-01 -3.063252E-01
       103  4.171816E-01  3.013862E-01 -3.035429E-01
       104  3.999507E-01  2.935014E-01 -2.969744E-01
       105  3.848185E-01  2.864639E-01 -2.886321E-01
       106  3.708700E-01  2.803401E-01 -2.795473E-01
       107  3.556253E-01  2.735207E-01 -2.732289E-01
       108  3.446748E-01  2.684287E-01 -2.721973E-01
       109  3.292055E-01  2.612779E-01 -2.642014E-01
       110  3.135714E-01  2.540981E-01 -2.567979E-01
       111  5.446728E-01  3.476223E-01  1.783735E-01
       112  5.526064E-01  3.589631E-01  1.756739E-01
       113  5.592535E-01  3.697527E-01  1.722593E-01
       114  5.718944E-01  3.853445E-01  1.702633E-01
       115  5.844877E-01  4.012718E-01  1.679109E-01
       116  5.969703E-01  4.173575E-01  1.651790E-01
       117  6.093281E-01  4.335342E-01  1.619351E-01
       118  6.214039E-01  4.497871E-01  1.579282E-01
       119  6.340482E-01  4.663499E-01  1.538134E-01
       120  6.469300E-01  4.831482E-01  1.493449E-01
       121  6.596331E-01  4.996614E-01  1.442403E-01
       122  6.721657E-01  5.160661E-01  1.385885E-01
       123  6.868331E-01  5.307242E-01  1.380862E-01
       124  7.016015E-01  5.462835E-01  1.364609E-01
       125  7.104419E-01  5.601401E-01  1.279597E-01
       126  7.203572E-01  5.743359E-01  1.194505E-01
       127  7.210386E-01  5.802887E-01  1.089944E-01
       128  7.249067E-01  5.895060E-01  9.647643E-02
       129  7.284155E-01  5.979299E-01  8.339552E-02
       130  7.321672E-01  6.054702E-01  6.945568E-02
       131  7.407848E-01  6.161159E-01  5.725957E-02
       132  7.510875E-01  6.272574E-01  4.535450E-02
       133  7.614722E-01  6.380316E-01  3.300241E-02
       134  7.693667E-01  6.458931E-01  2.014701E-02
       135  7.697855E-01  6.459284E-01  6.562605E-03
       136  7.824554E-01  6.567947E-01 -4.371285E-03
       137  7.794302E-01  6.525152E-01 -1.962991E-02
       138  7.884373E-01  6.584736E-01 -3.489409E-02
       139  7.980535E-01  6.637066E-01 -5.038557E-02
       140  7.987792E-01  6.603924E-01 -6.503829E-02
       141  7.943475E-01  6.514525E-01 -8.024911E-02
       142  7.961544E-01  6.466490E-01 -9.790031E-02
       143  8.023872E-01  6.450629E-01 -1.150448E-01
       144  8.128377E-01  6.469605E-01 -1.320099E-01
       145  8.237989E-01  6.484223E-01 -1.491009E-01
       146  8.374379E-01  6.537793E-01 -1.625610E-01
       147  8.539921E-01  6.643313E-01 -1.714273E-01
       148  8.708046E-01  6.759390E-01 -1.778999E-01
       149  8.841277E-01  6.799168E-01 -1.918743E-01
       150  8.977526E-01  6.817571E-01 -2.084410E-01
       151  9.111529E-01  6.825143E-01 -2.254689E-01
       152  9.244098E-01  6.823429E-01 -2.427977E-01
       153  9.263726E-01  6.728519E-01 -2.579390E-01
       154  9.266904E-01  6.608742E-01 -2.735127E-01
       155  9.338448E-01  6.538236E-01 -2.904024E-01
       156  9.485428E-01  6.533562E-01 -3.075630E-01
       157  9.641416E-01  6.538154E-01 -3.241355E-01
       158  9.799303E-01  6.551176E-01 -3.394969E-01
       159  9.974366E-01  6.634479E-01 -3.483117E-01
       160  1.006827E+00  6.583330E-01 -3.635439E-01
       161  1.005065E+00  6.447835E-01 -3.765056E-01
       162  1.016489E+00  6.426378E-01 -3.900750E-01
       163  1.030301E+00  6.403582E-01 -4.059354E-01
       164  1.038021E+00  6.314702E-01 -4.224255E-01
       165  1.053732E+00  6.304574E-01 -4.382706E-01
       166  1.065228E+00  6.268285E-01 -4.527354E-01
       167  1.077033E+00  6.237650E-01 -4.668341E-01
       168  1.084332E+00  6.164975E-01 -4.808833E-01
       169  1.087155E+00  6.062500E-01 -4.937837E-01
       170  1.086956E+00  5.956786E-01 -5.041828E-01
       171  1.095186E+00  5.893935E-01 -5.183650E-01
       172  1.104409E+00  5.846086E-01 -5.323112E-01
       173  1.113837E+00  5.809681E-01 -5.455862E-01
       174  1.107665E+00  5.702370E-01 -5.514909E-01
       175  1.101459E+00  5.601321E-01 -5.565738E-01
       176  1.103550E+00  5.546217E-01 -5.650259E-01
       177  1.105014E+00  5.506106E-01 -5.713189E-01
       178  1.121003E+00  5.577429E-01 -5.798437E-01
       179  1.122408E+00  5.552677E-01 -5.851861E-01
       180  1.137017E+00  5.627320E-01 -5.926157E-01
       181  1.133786E+00  5.579771E-01 -5.966860E-01
       182  1.130036E+00  5.533589E-01 -6.002170E-01
       183  1.125333E+00  5.489685E-01 -6.026529E-01
       184  1.119630E+00  5.449010E-01 -6.041723E-01
       185  1.112853E+00  5.403525E-01 -6.042612E-01
       186  1.103863E+00  5.352810E-01 -6.029414E-01
       187  1.094838E+00  5.301675E-01 -6.009981E-01
       188  1.092222E+00  5.294584E-01 -6.005430E-01
       189  1.092706E+00  5.318083E-01 -6.003098E-01
       190  1.090455E+00  5.319784E-01 -5.982961E-01
       191  1.085167E+00  5.303929E-01 -5.952560E-01
       192  1.078432E+00  5.279450E-01 -5.915777E-01
       193  1.082646E+00  5.322979E-01 -5.916443E-01
       194  1.074642E+00  5.286134E-01 -5.875405E-01
       195  1.067891E+00  5.256422E-01 -5.834361E-01
       196  1.066726E+00  5.259726E-01 -5.807453E-01
       197  1.067538E+00  5.271503E-01 -5.784145E-01
       198  1.053632E+00  5.182193E-01 -5.710286E-01
       199  1.049233E+00  5.151386E-01 -5.666682E-01
       200  1.050376E+00  5.152574E-01 -5.638769E-01
       201  1.050343E+00  5.139002E-01 -5.600778E-01
       202  1.048135E+00  5.105818E-01 -5.547070E-01
       203  1.046441E+00  5.069438E-01 -5.491189E-01
       204  1.047800E+00  5.047021E-01 -5.442572E-01
       205  1.045060E+00  4.992381E-01 -5.371879E-01
       206  1.040953E+00  4.920030E-01 -5.285910E-01
       207  1.030291E+00  4.806203E-01 -5.182670E-01
       208  3.045973E-01  2.478892E-01 -2.586276E-01
       209  3.073102E-01  2.469017E-01 -2.638328E-01
       210  3.017478E-01  2.401642E-01 -2.642337E-01
       211  2.941412E-01  2.322993E-01 -2.622267E-01
       212  2.914680E-01  2.265354E-01 -2.621344E-01
       213  2.988843E-01  2.274896E-01 -2.669731E-01
       214  2.967471E-01  2.220729E-01 -2.662783E-01
       215  2.931784E-01  2.163755E-01 -2.640450E-01
       216  2.872110E-01  2.089521E-01 -2.599144E-01
       217  3.000507E-01  2.152964E-01 -2.671443E-01
       218  3.032765E-01  2.142219E-01 -2.685717E-01
       219  2.997761E-01  2.088295E-01 -2.659688E-01
       220  2.913704E-01  2.011081E-01 -2.601556E-01
       221  2.802994E-01  1.927485E-01 -2.531103E-01
       222  2.633462E-01  1.812788E-01 -2.420837E-01
       223  2.457383E-01  1.697792E-01 -2.300995E-01
       224  2.338689E-01  1.613045E-01 -2.220448E-01
       225  2.225265E-01  1.533310E-01 -2.140581E-01
       226  2.181354E-01  1.498846E-01 -2.114504E-01
       227  2.191136E-01  1.501171E-01 -2.124923E-01
       228  2.121050E-01  1.455491E-01 -2.085610E-01
       229  1.984188E-01  1.370422E-01 -1.988392E-01
       230  1.820658E-01  1.265359E-01 -1.859079E-01
       231  1.702314E-01  1.187910E-01 -1.769280E-01
       232  1.702815E-01  1.192422E-01 -1.783647E-01
       233  1.670289E-01  1.176445E-01 -1.769853E-01
       234  1.631444E-01  1.156748E-01 -1.747604E-01
       235  1.584288E-01  1.130456E-01 -1.725956E-01
       236  1.500908E-01  1.080510E-01 -1.661751E-01
       237  1.496500E-01  1.090866E-01 -1.674753E-01
       238  1.435773E-01  1.057922E-01 -1.625682E-01
       239  1.333293E-01  9.785729E-02 -1.518860E-01
       240  1.287256E-01  9.527983E-02 -1.476400E-01
       241  1.327574E-01  1.006401E-01 -1.533459E-01
       242  1.344475E-01  1.042932E-01 -1.555129E-01
       243  1.266243E-01  9.815994E-02 -1.460029E-01
       244  1.178441E-01  8.971493E-02 -1.343009E-01
       245  1.139885E-01  8.695708E-02 -1.281420E-01
       246  1.084550E-01  8.176273E-02 -1.197954E-01
       247  1.021899E-01  7.558105E-02 -1.101096E-01
       248  9.758575E-02  7.091805E-02 -1.025034E-01
       249  9.786441E-02  7.141512E-02 -9.952895E-02
       250  9.723074E-02  7.023039E-02 -9.489450E-02
       251  9.116965E-02  6.303009E-02 -8.506085E-02
       252  8.673360E-02  5.743570E-02 -7.677256E-02
       253  8.308853E-02  5.259631E-02 -6.933032E-02
       254  7.923397E-02  4.775130E-02 -6.201888E-02
       255  7.367702E-02  4.214554E-02 -5.475868E-02
       256  7.030461E-02  3.867593E-02 -4.919178E-02
       257  6.471693E-02  3.419937E-02 -4.362824E-02
       258  6.456454E-02  3.297313E-02 -3.986076E-02
       259  5.984090E-02  2.949902E-02 -3.482524E-02
       260  5.902732E-02  2.804788E-02 -3.133910E-02
       261  5.524057E-02  2.538874E-02 -2.706174E-02
       262  5.009194E-02  2.241695E-02 -2.365969E-02
       263  4.922247E-02  2.121999E-02 -2.073050E-02
       264  4.543026E-02  1.915156E-02 -1.790370E-02
       265  4.605011E-02  1.853990E-02 -1.538745E-02
       266  4.604860E-02  1.773599E-02 -1.272590E-02
       267  4.785648E-02  1.769064E-02 -1.094346E-02
       268  4.791979E-02  1.697767E-02 -8.401614E-03
       269  4.831720E-02  1.634475E-02 -5.805054E-03
       270  4.878052E-02  1.581843E-02 -3.525047E-03
       271  4.509001E-02  1.430188E-02 -1.397697E-03
       272  4.506319E-02  1.374894E-02  1.095614E-03
       273  4.485614E-02  1.329282E-02  3.618764E-03
       274  4.473134E-02  1.289420E-02  5.946788E-03
       275  4.657685E-02  1.313863E-02  8.474605E-03
       276  4.759011E-02  1.325925E-02  1.100769E-02
       277  4.825645E-02  1.357847E-02  1.357571E-02
       278  4.462994E-02  1.275605E-02  1.464423E-02
       279  1.349738E+00  1.048554E+00  2.448306E-01
       280  1.339188E+00  1.041687E+00  2.557105E-01
       281  1.329215E+00  1.034960E+00  2.659921E-01
       282  1.324401E+00  1.033133E+00  2.775277E-01
       283  1.321239E+00  1.032464E+00  2.885794E-01
       284  1.310859E+00  1.023215E+00  2.930577E-01
       285  1.295531E+00  1.008843E+00  2.938494E-01
       286  1.279675E+00  9.945181E-01  2.954186E-01
       287  1.263003E+00  9.794232E-01  2.965171E-01
       288  1.247561E+00  9.658810E-01  2.998515E-01
       289  1.234046E+00  9.545032E-01  3.057043E-01
       290  1.237857E+00  9.583667E-01  3.130137E-01
       291  1.235772E+00  9.565506E-01  3.204364E-01
       292  1.234419E+00  9.551353E-01  3.269283E-01
       293  1.237958E+00  9.576446E-01  3.326414E-01
       294  1.242145E+00  9.606919E-01  3.376854E-01
       295  1.243762E+00  9.616393E-01  3.409600E-01
       296  1.235626E+00  9.536764E-01  3.419013E-01
       297  1.228000E+00  9.464698E-01  3.417199E-01
       298  1.215247E+00  9.345600E-01  3.399129E-01
       299  1.201942E+00  9.224743E-01  3.372488E-01
       300  1.193690E+00  9.152078E-01  3.344702E-01
       301  1.191067E+00  9.130208E-01  3.320997E-01
       302  1.181177E+00  9.044099E-01  3.287244E-01
       303  1.169400E+00  8.942846E-01  3.248046E-01
       304  1.158778E+00  8.854388E-01  3.206709E-01
       305  1.149347E+00  8.779273E-01  3.162352E-01
       306  1.153742E+00  8.832855E-01  3.129640E-01
       307  1.162768E+00  8.931432E-01  3.107741E-01
       308  1.171872E+00  9.031659E-01  3.088783E-01
       309  1.167371E+00  9.011732E-01  3.039266E-01
       310  1.162905E+00  8.995756E-01  2.987567E-01
       311  1.172349E+00  9.103273E-01  2.964806E-01
       312  1.187004E+00  9.248882E-01  2.970599E-01
       313  1.201992E+00  9.396032E-01  2.977855E-01
       314  1.215702E+00  9.536358E-01  2.975468E-01
       315  1.226235E+00  9.657037E-01  2.952054E-01
       316  1.230309E+00  9.725907E-01  2.902576E-01
       317  1.230239E+00  9.770215E-01  2.823456E-01
       318  1.219902E+00  9.714019E-01  2.745377E-01
       319  1.212412E+00  9.696113E-01  2.653496E-01
       320  1.208040E+00  9.714182E-01  2.555669E-01
       321  1.203659E+00  9.735795E-01  2.453261E-01
       322  1.198966E+00  9.755318E-01  2.349668E-01
       323  1.205441E+00  9.857890E-01  2.278072E-01
       324  1.210971E+00  9.959638E-01  2.190081E-01
       325  1.219190E+00  1.007335E+00  2.113685E-01
       326  1.224671E+00  1.017347E+00  2.010259E-01
       327  1.230576E+00  1.027446E+00  1.898129E-01
       328  1.228310E+00  1.032000E+00  1.750872E-01
       329  1.231918E+00  1.040278E+00  1.617365E-01
       330  1.238908E+00  1.049842E+00  1.485452E-01
       331  1.245485E+00  1.058301E+00  1.346588E-01
       332  1.249171E+00  1.064525E+00  1.194337E-01
       333  1.247367E+00  1.066735E+00  1.024050E-01
       334  1.247883E+00  1.069461E+00  8.576621E-02
       335  1.254996E+00  1.075189E+00  7.047000E-02
       336  1.260474E+00  1.079574E+00  5.480443E-02
       337  1.253863E+00  1.075076E+00  3.839923E-02
       338  1.259999E+00  1.077739E+00  2.260985E-02
       339  1.267396E+00  1.080573E+00  1.029193E-02
       340  1.279157E+00  1.085448E+00 -2.347417E-03
       341  1.294140E+00  1.091991E+00 -1.149623E-02
       342  1.307394E+00  1.096285E+00 -2.460144E-02
       343  1.321526E+00  1.100672E+00 -3.701983E-02
       344  1.337092E+00  1.105873E+00 -4.736960E-02
       345  1.350565E+00  1.109681E+00 -5.754090E-02
       346  1.354531E+00  1.105609E+00 -7.618519E-02
       347  1.366799E+00  1.106882E+00 -8.997492E-02
       348  1.372472E+00  1.102888E+00 -1.065428E-01
       349  1.374505E+00  1.095518E+00 -1.251564E-01
       350  1.376835E+00  1.087748E+00 -1.436888E-01
       351  1.380178E+00  1.080089E+00 -1.620385E-01
       352  1.394647E+00  1.079707E+00 -1.772678E-01
       353  1.397059E+00  1.070794E+00 -1.952782E-01
       354  1.399151E+00  1.061314E+00 -2.134213E-01
       355  1.401493E+00  1.051458E+00 -2.315312E-01
       356  1.415988E+00  1.050296E+00 -2.467570E-01
       357  1.417397E+00  1.040744E+00 -2.629386E-01
       358  1.432956E+00  1.040233E+00 -2.780062E-01
       359  1.448844E+00  1.040015E+00 -2.931267E-01
       360  1.452754E+00  1.031253E+00 -3.100150E-01
       361  1.465180E+00  1.027820E+00 -3.269233E-01
       362  1.482049E+00  1.032197E+00 -3.364959E-01
       363  1.495943E+00  1.031800E+00 -3.509234E-01
       364  1.507848E+00  1.028204E+00 -3.685141E-01
       365  1.517584E+00  1.023644E+00 -3.856025E-01
       366  1.526227E+00  1.020171E+00 -3.999858E-01
       367  1.543339E+00  1.024247E+00 -4.119534E-01
       368  1.552925E+00  1.020663E+00 -4.282656E-01
       369  1.567833E+00  1.026821E+00 -4.349874E-01
       370  1.582029E+00  1.032650E+00 -4.413442E-01
       371  1.598140E+00  1.035647E+00 -4.548858E-01
       372  1.612357E+00  1.035283E+00 -4.722280E-01
       373  1.626612E+00  1.036577E+00 -4.871759E-01
       374  1.637685E+00  1.034983E+00 -5.036654E-01
       375  1.642855E+00  1.032315E+00 -5.150210E-01
       376  1.646446E+00  1.029724E+00 -5.243473E-01
       377  1.649487E+00  1.027096E+00 -5.332730E-01
       378  1.655027E+00  1.025318E+00 -5.444521E-01
       379  1.669778E+00  1.027865E+00 -5.600354E-01
       380  1.681893E+00  1.029442E+00 -5.748043E-01
       381  1.691156E+00  1.029805E+00 -5.890579E-01
       382  1.697531E+00  1.029482E+00 -6.008925E-01
       383  1.699958E+00  1.028154E+00 -6.093220E-01
       384  1.703316E+00  1.027094E+00 -6.201908E-01
       385  1.710670E+00  1.027763E+00 -6.342602E-01
       386  1.712811E+00  1.026982E+00 -6.437206E-01
       387  1.709532E+00  1.024178E+00 -6.465676E-01
       388  1.711314E+00  1.023552E+00 -6.569136E-01
       389  5.285741E-01  3.272998E-01  1.812121E-01
       390  5.174283E-01  3.156318E-01  1.811091E-01
       391  5.087752E-01  3.058818E-01  1.819517E-01
       392  5.063093E-01  3.015538E-01  1.840518E-01
       393  5.057705E-01  2.996960E-01  1.860890E-01
       394  5.053971E-01  2.979524E-01  1.878029E-01
       395  5.054671E-01  2.970821E-01  1.893687E-01
       396  5.058733E-01  2.967465E-01  1.907217E-01
       397  5.064048E-01  2.969697E-01  1.917878E-01
       398  5.073842E-01  2.979956E-01  1.926451E-01
       399  5.054553E-01  2.964394E-01  1.924650E-01
       400  5.042117E-01  2.955821E-01  1.922818E-01
       401  5.052544E-01  2.970770E-01  1.924805E-01
       402  5.119932E-01  3.033372E-01  1.935913E-01
       403  5.129439E-01  3.046320E-01  1.931099E-01
       404  5.154795E-01  3.067816E-01  1.924467E-01
       405  5.168900E-01  3.076890E-01  1.908002E-01
       406  5.238166E-01  3.132916E-01  1.896321E-01
       407  5.333923E-01  3.200589E-01  1.884126E-01
       408  5.431160E-01  3.268984E-01  1.867553E-01
       409  5.473752E-01  3.275737E-01  1.832448E-01
       410  5.514498E-01  3.277194E-01  1.794044E-01
       411  5.628528E-01  3.324880E-01  1.754728E-01
       412  5.761893E-01  3.374165E-01  1.706232E-01
       413  5.915631E-01  3.434605E-01  1.656934E-01
       414  6.087985E-01  3.506302E-01  1.604908E-01
       415  6.267888E-01  3.562198E-01  1.539590E-01
       416  6.449284E-01  3.640438E-01  1.491309E-01
       417  6.636998E-01  3.718908E-01  1.441374E-01
       418  6.821534E-01  3.806722E-01  1.399804E-01
       419  6.948219E-01  3.759380E-01  1.298042E-01
       420  7.115601E-01  3.736139E-01  1.194237E-01
       421  7.322384E-01  3.753734E-01  1.101287E-01
       422  7.533381E-01  3.775551E-01  1.011136E-01
       423  7.742226E-01  3.791334E-01  9.198228E-02
       424  7.877585E-01  3.713173E-01  8.035682E-02
       425  8.032621E-01  3.679726E-01  7.075299E-02
       426  8.237982E-01  3.740465E-01  6.462167E-02
       427  8.444335E-01  3.796812E-01  5.800051E-02
       428  8.644279E-01  3.777914E-01  4.649189E-02
       429  8.841274E-01  3.754663E-01  3.485627E-02
       430  9.036997E-01  3.730236E-01  2.305443E-02
       431  9.175512E-01  3.667716E-01  1.056701E-02
       432  9.305009E-01  3.599670E-01 -2.206215E-03
       433  9.397055E-01  3.537126E-01 -1.347207E-02
       434  9.462762E-01  3.457700E-01 -2.448957E-02
       435  9.623846E-01  3.445168E-01 -3.704480E-02
       436  9.782607E-01  3.436574E-01 -4.963413E-02
       437  9.933844E-01  3.430840E-01 -6.239219E-02
       438  1.005704E+00  3.413718E-01 -7.556874E-02
       439  1.010761E+00  3.361125E-01 -8.953135E-02
       440  1.013545E+00  3.308924E-01 -1.034351E-01
       441  1.014151E+00  3.257996E-01 -1.172208E-01
       442  1.015165E+00  3.229859E-01 -1.307435E-01
       443  1.029787E+00  3.284243E-01 -1.417409E-01
       444  1.035108E+00  3.295928E-01 -1.558915E-01
       445  1.037357E+00  3.299927E-01 -1.704475E-01
       446  1.028789E+00  3.268475E-01 -1.823525E-01
       447  1.020006E+00  3.243875E-01 -1.942154E-01
       448  1.018667E+00  3.262705E-01 -2.072022E-01
       449  1.023577E+00  3.316709E-01 -2.220384E-01
       450  1.018592E+00  3.334508E-01 -2.342355E-01
       451  1.016434E+00  3.369297E-01 -2.475500E-01
       452  1.017533E+00  3.430671E-01 -2.627698E-01
       453  1.016385E+00  3.488863E-01 -2.780515E-01
       454  1.011599E+00  3.524626E-01 -2.906193E-01
       455  1.019610E+00  3.623086E-01 -3.051761E-01
       456  1.026053E+00  3.720858E-01 -3.202876E-01
       457  1.028353E+00  3.808101E-01 -3.359078E-01
       458  1.043625E+00  3.914360E-01 -3.435784E-01
       459  1.059859E+00  4.021067E-01 -3.504853E-01
       460  1.067935E+00  4.122721E-01 -3.626463E-01
       461  1.067354E+00  4.200047E-01 -3.770051E-01
       462  1.056431E+00  4.197895E-01 -3.859038E-01
       463  1.045946E+00  4.190081E-01 -3.944344E-01
       464  1.035863E+00  4.177116E-01 -4.025900E-01
       465  1.025928E+00  4.159443E-01 -4.101224E-01
       466  1.022171E+00  4.190362E-01 -4.207111E-01
       467  1.024664E+00  4.274208E-01 -4.340794E-01
       468  1.027582E+00  4.359610E-01 -4.470312E-01
       469  1.027040E+00  4.413838E-01 -4.574855E-01
       470  1.019331E+00  4.404581E-01 -4.631302E-01
       471  1.023270E+00  4.498477E-01 -4.756384E-01
       472  1.027880E+00  4.597425E-01 -4.880179E-01
       473  1.020743E+00  4.596295E-01 -4.929037E-01
       474  1.014276E+00  4.602393E-01 -4.977930E-01
       475  3.004504E-01  2.479527E-01 -2.467116E-01
       476  3.016907E-01  2.481883E-01 -2.412470E-01
       477  2.926742E-01  2.427509E-01 -2.322852E-01
       478  2.822922E-01  2.363668E-01 -2.227371E-01
       479  2.765344E-01  2.306810E-01 -2.143075E-01
       480  2.791945E-01  2.270036E-01 -2.086864E-01
       481  2.828161E-01  2.227833E-01 -2.030375E-01
       482  2.766993E-01  2.147389E-01 -1.932907E-01
       483  2.740688E-01  2.073090E-01 -1.843157E-01
       484  2.743534E-01  2.003367E-01 -1.757328E-01
       485  2.766368E-01  1.937848E-01 -1.673331E-01
       486  2.770948E-01  1.867081E-01 -1.579891E-01
       487  2.673093E-01  1.800191E-01 -1.487323E-01
       488  2.532798E-01  1.748261E-01 -1.410921E-01
       489  2.421605E-01  1.696623E-01 -1.328856E-01
       490  2.332917E-01  1.641949E-01 -1.235280E-01
       491  2.272529E-01  1.590495E-01 -1.137673E-01
       492  2.292088E-01  1.546754E-01 -1.044613E-01
       493  2.246049E-01  1.502441E-01 -9.453258E-02
       494  2.230456E-01  1.462449E-01 -8.447412E-02
       495  2.212227E-01  1.424917E-01 -7.474901E-02
       496  2.157380E-01  1.386460E-01 -6.522850E-02
       497  2.094392E-01  1.348215E-01 -5.621173E-02
       498  2.093529E-01  1.316249E-01 -4.721977E-02
       499  2.043286E-01  1.278990E-01 -3.843188E-02
       500  2.013938E-01  1.242263E-01 -2.976096E-02
       501  2.075099E-01  1.227293E-01 -2.263721E-02
       502  2.130840E-01  1.211737E-01 -1.529887E-02
       503  2.102596E-01  1.177611E-01 -6.931961E-03
       504  2.144047E-01  1.159741E-01  9.400798E-04
       505  2.120790E-01  1.126968E-01  8.658976E-03
       506  2.012792E-01  1.077885E-01  1.416196E-02
       507  2.009024E-01  1.047687E-01  2.151122E-02
       508  1.921204E-01  9.986947E-02  2.671601E-02
       509  1.919599E-01  9.658060E-02  3.446961E-02
       510  1.975034E-01  9.554835E-02  4.205462E-02
       511  1.974230E-01  9.263602E-02  4.959264E-02
       512  1.970652E-01  8.964587E-02  5.687536E-02
       513  1.971655E-01  8.715032E-02  6.405857E-02
       514  1.982684E-01  8.525627E-02  7.131009E-02
       515  1.994331E-01  8.378940E-02  7.830650E-02
       516  2.028332E-01  8.393174E-02  8.512060E-02
       517  1.991374E-01  8.102588E-02  9.006459E-02
       518  1.925822E-01  7.705665E-02  9.355539E-02
       519  1.818601E-01  7.135232E-02  9.259732E-02
       520  1.734019E-01  6.683797E-02  9.349685E-02
       521  1.635516E-01  6.170209E-02  9.295524E-02
       522  1.530293E-01  5.673465E-02  9.157533E-02
       523  1.409821E-01  5.167933E-02  8.932987E-02
       524  1.264815E-01  4.631221E-02  8.497761E-02
       525  1.123023E-01  4.194409E-02  8.030756E-02
       526  1.138331E-01  4.435177E-02  8.417139E-02
       527  1.084200E-01  4.460841E-02  8.448717E-02
       528  9.966364E-02  4.328364E-02  8.246144E-02
       529  9.313558E-02  4.284692E-02  8.137691E-02
       530  9.107869E-02  4.404776E-02  8.262400E-02
       531  9.632076E-02  4.816742E-02  8.756510E-02
       532  1.012375E-01  5.206557E-02  9.208505E-02
       533  9.905543E-02  5.311098E-02  9.282738E-02
       534  1.014395E-01  5.580549E-02  9.547955E-02
       535  1.042812E-01  5.875222E-02  9.842149E-02
       536  9.771157E-02  5.663745E-02  9.555610E-02
       537  9.265970E-02  5.484921E-02  9.287451E-02
       538  9.552856E-02  5.746424E-02  9.457591E-02
       539  8.875615E-02  5.429127E-02  8.963187E-02
       540  8.866323E-02  5.471351E-02  8.830663E-02
       541  8.572658E-02  5.295631E-02  8.505421E-02
       542  8.514912E-02  5.261168E-02  8.290455E-02
       543  8.324913E-02  5.132966E-02  8.011155E-02
       544  8.019882E-02  4.891183E-02  7.633990E-02
       545  7.402303E-02  4.491772E-02  7.092050E-02
       546  7.034257E-02  4.214313E-02  6.704390E-02
       547  7.174189E-02  4.181753E-02  6.564577E-02
       548  6.725229E-02  3.843567E-02  6.129213E-02
       549  6.244354E-02  3.471451E-02  5.683557E-02
       550  5.939627E-02  3.187157E-02  5.313053E-02
       551  5.478082E-02  2.866843E-02  4.897929E-02
       552  4.782211E-02  2.513509E-02  4.464381E-02
       553  4.549333E-02  2.281852E-02  4.136710E-02
       554  4.274866E-02  2.058848E-02  3.819711E-02
       555  4.022439E-02  1.857617E-02  3.495756E-02
       556  4.099983E-02  1.778740E-02  3.316825E-02
       557  3.891540E-02  1.621406E-02  3.056408E-02
       558  4.199163E-02  1.665483E-02  3.025701E-02
       559  4.233917E-02  1.585291E-02  2.835452E-02
       560  4.137948E-02  1.458256E-02  2.572614E-02
       561  4.087663E-02  1.365753E-02  2.331215E-02
       562  3.939183E-02  1.269663E-02  2.069843E-02
       563  4.379751E-02  1.359918E-02  2.096726E-02